
     Program PWSCF v.7.3.1 starts on 25Jun2024 at  0:30: 6 

     This program is part of the open-source Quantum ESPRESSO suite
     for quantum simulation of materials; please cite
         "P. Giannozzi et al., J. Phys.:Condens. Matter 21 395502 (2009);
         "P. Giannozzi et al., J. Phys.:Condens. Matter 29 465901 (2017);
         "P. Giannozzi et al., J. Chem. Phys. 152 154105 (2020);
          URL http://www.quantum-espresso.org", 
     in publications or presentations arising from this work. More details at
     http://www.quantum-espresso.org/quote

     Parallel version (MPI), running on     4 processors

     MPI processes distributed on     1 nodes
     0 MiB available memory on the printing compute node when the environment starts
 
     Waiting for input...
     Reading input from standard input

     Current dimensions of program PWSCF are:
     Max number of different atomic species (ntypx) = 10
     Max number of k-points (npk) =  40000
     Max angular momentum in pseudopotentials (lmaxx) =  4
 
     R & G space division:  proc/nbgrp/npool/nimage =       4
     Subspace diagonalization in iterative solution of the eigenvalue problem:
     a serial algorithm will be used

 
     Parallelization info
     --------------------
     sticks:   dense  smooth     PW     G-vecs:    dense   smooth      PW
     Min        1234     595    148               141226    46955    5864
     Max        1235     596    150               141237    46964    5868
     Sum        4939    2383    595               564933   187841   23465
 
     Using Slab Decomposition
 


     bravais-lattice index     =            4
     lattice parameter (alat)  =      12.0000  a.u.
     unit-cell volume          =    2992.9838 (a.u.)^3
     number of atoms/cell      =           12
     number of atomic types    =            2
     number of electrons       =       104.00
     number of Kohn-Sham states=           52
     kinetic-energy cutoff     =      60.0000  Ry
     charge density cutoff     =     500.0000  Ry
     scf convergence threshold =      1.0E-08
     mixing beta               =       0.7000
     number of iterations used =            8  plain     mixing
     energy convergence thresh.=      1.0E-04
     force convergence thresh. =      1.0E-03
     press convergence thresh. =      5.0E-01
     Exchange-correlation=  SLA  PW   PBX  PBC
                           (   1   4   3   4   0   0   0)
     nstep                     =           50


     celldm(1)=  12.000000  celldm(2)=   0.000000  celldm(3)=   2.000000
     celldm(4)=   0.000000  celldm(5)=   0.000000  celldm(6)=   0.000000

     crystal axes: (cart. coord. in units of alat)
               a(1) = (   1.000000   0.000000   0.000000 )  
               a(2) = (  -0.500000   0.866025   0.000000 )  
               a(3) = (   0.000000   0.000000   2.000000 )  

     reciprocal axes: (cart. coord. in units 2 pi/alat)
               b(1) = (  1.000000  0.577350  0.000000 )  
               b(2) = (  0.000000  1.154701  0.000000 )  
               b(3) = (  0.000000  0.000000  0.500000 )  


     PseudoPot. # 1 for Mo read from file:
     ./pseudos/Mo_ONCV_PBE-1.0.oncvpsp.upf
     MD5 check sum: 1b5d28e075c9ccadda658a603575cd1f
     Pseudo is Norm-conserving, Zval = 14.0
     Generated using ONCVPSP code by D. R. Hamann
     Using radial grid of 1526 points,  6 beta functions with: 
                l(1) =   0
                l(2) =   0
                l(3) =   1
                l(4) =   1
                l(5) =   2
                l(6) =   2

     PseudoPot. # 2 for S  read from file:
     ./pseudos/s_pbe_v1.4.uspp.F.UPF
     MD5 check sum: 88d86576ff6df21479756cfb9bdac1df
     Pseudo is Ultrasoft + core correction, Zval =  6.0
     Generated by new atomic code, or converted to UPF format
     Using radial grid of  907 points,  6 beta functions with: 
                l(1) =   0
                l(2) =   0
                l(3) =   1
                l(4) =   1
                l(5) =   2
                l(6) =   2
     Q(r) pseudized with  8 coefficients,  rinner =    1.300   1.300   1.300
                                                       1.300   1.300

     atomic species   valence    mass     pseudopotential
     Mo               14.00    95.95000     Mo( 1.00)
     S                 6.00    32.06000     S ( 1.00)

     No symmetry found



   Cartesian axes

     site n.     atom                  positions (alat units)
         1        Mo     tau(   1) = (   0.0000000   0.0000000   1.8259479  )
         2        S      tau(   2) = (   0.2503887   0.1445620   2.0771240  )
         3        S      tau(   3) = (   0.2503887   0.1445620   1.5747718  )
         4        Mo     tau(   4) = (  -0.2503887   0.4336860   1.8259479  )
         5        S      tau(   5) = (   0.0000000   0.5782480   2.0771240  )
         6        S      tau(   6) = (   0.0000000   0.5782480   1.5747718  )
         7        Mo     tau(   7) = (   0.5007774   0.0000000   1.8259479  )
         8        S      tau(   8) = (   0.7511661   0.1445620   2.0771240  )
         9        S      tau(   9) = (   0.7511661   0.1445620   1.5747718  )
        10        Mo     tau(  10) = (   0.2503887   0.4336860   1.8259479  )
        11        S      tau(  11) = (   0.5007774   0.5782480   2.0771240  )
        12        S      tau(  12) = (   0.5007774   0.5782480   1.5747718  )

     number of k points=     1
                       cart. coord. in units 2pi/alat
        k(    1) = (   0.0000000   0.0000000   0.0000000), wk =   2.0000000

     Dense  grid:   564933 G-vectors     FFT dimensions: (  90,  90, 180)

     Smooth grid:   187841 G-vectors     FFT dimensions: (  60,  60, 120)

     Estimated max dynamical RAM per process >     567.87 MB

     Estimated total dynamical RAM >       2.22 GB

     Initial potential from superposition of free atoms

     starting charge     103.9958, renormalised to     104.0000

     negative rho (up, down):  6.337E-08 0.000E+00
     Starting wfcs are   72 randomized atomic wfcs

     total cpu time spent up to now is        2.9 secs

     Self-consistent Calculation

     iteration #  1     ecut=    60.00 Ry     beta= 0.70
     Davidson diagonalization with overlap
     ethr =  1.00E-02,  avg # of iterations =  2.0

     Threshold (ethr) on eigenvalues was too large:
     Diagonalizing with lowered threshold

     Davidson diagonalization with overlap
     ethr =  2.93E-04,  avg # of iterations =  4.0

     total cpu time spent up to now is        8.0 secs

     total energy              =    -741.81354493 Ry
     estimated scf accuracy    <       0.39547351 Ry

     iteration #  2     ecut=    60.00 Ry     beta= 0.70
     Davidson diagonalization with overlap
     ethr =  3.80E-04,  avg # of iterations =  4.0

     total cpu time spent up to now is       11.2 secs

     total energy              =    -741.81426459 Ry
     estimated scf accuracy    <       0.37266037 Ry

     iteration #  3     ecut=    60.00 Ry     beta= 0.70
     Davidson diagonalization with overlap
     ethr =  3.58E-04,  avg # of iterations =  5.0

     total cpu time spent up to now is       14.4 secs

     total energy              =    -741.89813471 Ry
     estimated scf accuracy    <       0.14999985 Ry

     iteration #  4     ecut=    60.00 Ry     beta= 0.70
     Davidson diagonalization with overlap
     ethr =  1.44E-04,  avg # of iterations =  3.0

     total cpu time spent up to now is       17.3 secs

     total energy              =    -741.92209534 Ry
     estimated scf accuracy    <       0.00481283 Ry

     iteration #  5     ecut=    60.00 Ry     beta= 0.70
     Davidson diagonalization with overlap
     ethr =  4.63E-06,  avg # of iterations =  6.0

     total cpu time spent up to now is       20.7 secs

     total energy              =    -741.92548548 Ry
     estimated scf accuracy    <       0.01156824 Ry

     iteration #  6     ecut=    60.00 Ry     beta= 0.70
     Davidson diagonalization with overlap
     ethr =  4.63E-06,  avg # of iterations =  5.0

     total cpu time spent up to now is       23.9 secs

     total energy              =    -741.92455230 Ry
     estimated scf accuracy    <       0.00289089 Ry

     iteration #  7     ecut=    60.00 Ry     beta= 0.70
     Davidson diagonalization with overlap
     ethr =  2.78E-06,  avg # of iterations =  6.0

     total cpu time spent up to now is       27.8 secs

     total energy              =    -741.92617613 Ry
     estimated scf accuracy    <       0.00956770 Ry

     iteration #  8     ecut=    60.00 Ry     beta= 0.70
     Davidson diagonalization with overlap
     ethr =  2.78E-06,  avg # of iterations =  3.0

     total cpu time spent up to now is       31.2 secs

     total energy              =    -741.92552890 Ry
     estimated scf accuracy    <       0.00443674 Ry

     iteration #  9     ecut=    60.00 Ry     beta= 0.70
     Davidson diagonalization with overlap
     ethr =  2.78E-06,  avg # of iterations =  5.0

     total cpu time spent up to now is       34.5 secs

     total energy              =    -741.92603724 Ry
     estimated scf accuracy    <       0.00018996 Ry

     iteration # 10     ecut=    60.00 Ry     beta= 0.70
     Davidson diagonalization with overlap
     ethr =  1.83E-07,  avg # of iterations =  5.0

     total cpu time spent up to now is       38.0 secs

     total energy              =    -741.92608894 Ry
     estimated scf accuracy    <       0.00000798 Ry

     iteration # 11     ecut=    60.00 Ry     beta= 0.70
     Davidson diagonalization with overlap
     ethr =  7.67E-09,  avg # of iterations =  7.0

     total cpu time spent up to now is       41.5 secs

     total energy              =    -741.92609233 Ry
     estimated scf accuracy    <       0.00000567 Ry

     iteration # 12     ecut=    60.00 Ry     beta= 0.70
     Davidson diagonalization with overlap
     ethr =  5.45E-09,  avg # of iterations =  5.0

     total cpu time spent up to now is       45.1 secs

     total energy              =    -741.92609285 Ry
     estimated scf accuracy    <       0.00000749 Ry

     iteration # 13     ecut=    60.00 Ry     beta= 0.70
     Davidson diagonalization with overlap
     ethr =  5.45E-09,  avg # of iterations =  2.0

     total cpu time spent up to now is       48.3 secs

     total energy              =    -741.92609273 Ry
     estimated scf accuracy    <       0.00000264 Ry

     iteration # 14     ecut=    60.00 Ry     beta= 0.70
     Davidson diagonalization with overlap
     ethr =  2.54E-09,  avg # of iterations =  5.0

     total cpu time spent up to now is       51.5 secs

     total energy              =    -741.92609311 Ry
     estimated scf accuracy    <       0.00000017 Ry

     iteration # 15     ecut=    60.00 Ry     beta= 0.70
     Davidson diagonalization with overlap
     ethr =  1.66E-10,  avg # of iterations = 10.0

     total cpu time spent up to now is       55.5 secs

     total energy              =    -741.92609327 Ry
     estimated scf accuracy    <       0.00000030 Ry

     iteration # 16     ecut=    60.00 Ry     beta= 0.70
     Davidson diagonalization with overlap
     ethr =  1.66E-10,  avg # of iterations =  2.0

     total cpu time spent up to now is       58.7 secs

     total energy              =    -741.92609325 Ry
     estimated scf accuracy    <       0.00000014 Ry

     iteration # 17     ecut=    60.00 Ry     beta= 0.70
     Davidson diagonalization with overlap
     ethr =  1.32E-10,  avg # of iterations =  5.0

     total cpu time spent up to now is       61.8 secs

     End of self-consistent calculation

          k = 0.0000 0.0000 0.0000 ( 23465 PWs)   bands (ev):

   -59.1712 -59.1340 -59.1325 -59.1314 -33.5651 -33.5627 -33.5607 -33.2787
   -33.2770 -33.2753 -33.1902 -33.1900 -33.1321 -33.0567 -33.0560 -33.0557
   -12.2632 -11.0366 -10.3747 -10.3689 -10.3663 -10.2360 -10.2265 -10.2213
    -4.0044  -3.9995  -3.9933  -3.8131  -3.0341  -3.0285  -3.0235  -2.2774
    -2.2672  -2.2595  -1.2899  -1.2781  -1.2740  -0.8061  -0.8005  -0.1573
    -0.1433  -0.1378  -0.0379   0.3848   0.4093   0.8601   0.8631   0.8699
     1.0676   1.0685   1.0771   1.6853

     highest occupied level (ev):     1.6853

!    total energy              =    -741.92609326 Ry
     estimated scf accuracy    <          8.0E-09 Ry

     The total energy is the sum of the following terms:
     one-electron contribution =   -2113.99271985 Ry
     hartree contribution      =    1067.32736714 Ry
     xc contribution           =    -130.16117073 Ry
     ewald contribution        =     434.90043018 Ry

     convergence has been achieved in  17 iterations

     Forces acting on atoms (cartesian axes, Ry/au):

     atom    1 type  1   force =     0.00471003    0.00210864    0.00000259
     atom    2 type  2   force =    -0.00007472   -0.00009738   -0.00212542
     atom    3 type  2   force =    -0.00007498   -0.00009829    0.00212423
     atom    4 type  1   force =     0.00551461   -0.00098713    0.00000249
     atom    5 type  2   force =     0.00002435   -0.00196433   -0.00129968
     atom    6 type  2   force =     0.00002558   -0.00196447    0.00129817
     atom    7 type  1   force =    -0.00022923    0.00403806    0.00000157
     atom    8 type  2   force =    -0.00266917    0.00044190   -0.00086633
     atom    9 type  2   force =    -0.00266656    0.00044162    0.00086577
     atom   10 type  1   force =     0.00057441    0.00094196   -0.00000145
     atom   11 type  2   force =    -0.00256735   -0.00143021   -0.00004463
     atom   12 type  2   force =    -0.00256695   -0.00143037    0.00004269

     Total force =     0.011364     Total SCF correction =     0.000206


     Computing stress (Cartesian axis) and pressure

          total   stress  (Ry/bohr**3)                   (kbar)     P=       -2.39
  -0.00002079  -0.00000187  -0.00000000           -3.06       -0.28       -0.00
  -0.00000187  -0.00001861   0.00000000           -0.28       -2.74        0.00
  -0.00000000   0.00000000  -0.00000942           -0.00        0.00       -1.39


     BFGS Geometry Optimization
     Energy error            =      0.0E+00 Ry
     Gradient error          =      5.5E-03 Ry/Bohr
     Cell gradient error     =      3.1E+00 kbar

     number of scf cycles    =   1
     number of bfgs steps    =   0

     enthalpy           new  =    -741.9260932645 Ry

     new trust radius        =       0.0057106173 bohr
ibrav =      4
 celldm(1) =     11.99376218
 celldm(3) =      2.00104018
Input lattice vectors:
     0.99948018    -0.00004674     0.00000000
    -0.49978057     0.86564581     0.00000000
     0.00000000     0.00000000     2.00000000
New lattice vectors in INITIAL alat:
     0.99948018     0.00000000     0.00000000
    -0.49974009     0.86557523     0.00000000
     0.00000000     0.00000000     2.00000000
New lattice vectors in NEW alat (for information only):
     1.00000000     0.00000000     0.00000000
    -0.50000000     0.86602540     0.00000000
     0.00000000     0.00000000     2.00104018
Discrepancy in bohr =     0.000047    0.000081    0.000000
     new conv_thr            =       0.0000000100 Ry

     new unit-cell volume =   2989.87299 a.u.^3 (   443.05347 Ang^3 )
     density =      2.39973 g/cm^3

CELL_PARAMETERS (alat= 12.00000000)
   0.999480182   0.000000000   0.000000000
  -0.499740091   0.865575228   0.000000000
   0.000000000   0.000000000   2.000000000

ATOMIC_POSITIONS (angstrom)
Mo               0.0024911433        0.0011152656       11.5950013729
S                1.5891339681        0.9174582395       13.1888752760
S                1.5891338326        0.9174577556       10.0011240937
Mo              -1.5862567989        2.7520071319       11.5950013173
S                0.0000128801        3.6690000274       13.1893122395
S                0.0000135267        3.6689999527       10.0006869599
Mo               3.1782257358        0.0021357362       11.5950008328
S                4.7661087353        0.9177434640       13.1895415569
S                4.7661101170        0.9177433149       10.0004581435
Mo               1.5894772930        2.7530274303       11.5949992343
S                3.1769891011        3.6692825235       13.1899763820
S                3.1769893098        3.6692824391       10.0000225911



     Writing config-only to output data dir ./MoS2.save/ :
     XML data file
     NEW-OLD atomic charge density approx. for the potential

     total cpu time spent up to now is       73.3 secs

     Self-consistent Calculation

     iteration #  1     ecut=    60.00 Ry     beta= 0.70
     Davidson diagonalization with overlap
     ethr =  1.00E-06,  avg # of iterations =  3.0

     Threshold (ethr) on eigenvalues was too large:
     Diagonalizing with lowered threshold

     Davidson diagonalization with overlap
     ethr =  7.46E-09,  avg # of iterations = 11.0

     total cpu time spent up to now is       81.1 secs

     total energy              =    -741.92622347 Ry
     estimated scf accuracy    <       0.00001359 Ry

     iteration #  2     ecut=    60.00 Ry     beta= 0.70
     Davidson diagonalization with overlap
     ethr =  1.31E-08,  avg # of iterations =  6.0

     total cpu time spent up to now is       84.9 secs

     total energy              =    -741.92621960 Ry
     estimated scf accuracy    <       0.00007122 Ry

     iteration #  3     ecut=    60.00 Ry     beta= 0.70
     Davidson diagonalization with overlap
     ethr =  1.31E-08,  avg # of iterations =  6.0

     total cpu time spent up to now is       88.8 secs

     total energy              =    -741.92622906 Ry
     estimated scf accuracy    <       0.00000364 Ry

     iteration #  4     ecut=    60.00 Ry     beta= 0.70
     Davidson diagonalization with overlap
     ethr =  3.50E-09,  avg # of iterations =  8.0

     total cpu time spent up to now is       92.4 secs

     total energy              =    -741.92623002 Ry
     estimated scf accuracy    <       0.00000161 Ry

     iteration #  5     ecut=    60.00 Ry     beta= 0.70
     Davidson diagonalization with overlap
     ethr =  1.55E-09,  avg # of iterations =  6.0

     total cpu time spent up to now is       95.9 secs

     total energy              =    -741.92623028 Ry
     estimated scf accuracy    <       0.00000057 Ry

     iteration #  6     ecut=    60.00 Ry     beta= 0.70
     Davidson diagonalization with overlap
     ethr =  5.53E-10,  avg # of iterations =  5.0

     total cpu time spent up to now is       99.9 secs

     total energy              =    -741.92623035 Ry
     estimated scf accuracy    <       0.00000005 Ry

     iteration #  7     ecut=    60.00 Ry     beta= 0.70
     Davidson diagonalization with overlap
     ethr =  5.03E-11,  avg # of iterations =  8.0

     total cpu time spent up to now is      103.8 secs

     total energy              =    -741.92623038 Ry
     estimated scf accuracy    <       0.00000007 Ry

     iteration #  8     ecut=    60.00 Ry     beta= 0.70
     Davidson diagonalization with overlap
     ethr =  5.03E-11,  avg # of iterations =  3.0

     total cpu time spent up to now is      107.2 secs

     total energy              =    -741.92623037 Ry
     estimated scf accuracy    <       0.00000003 Ry

     iteration #  9     ecut=    60.00 Ry     beta= 0.70
     Davidson diagonalization with overlap
     ethr =  3.14E-11,  avg # of iterations =  6.0

     total cpu time spent up to now is      110.6 secs

     End of self-consistent calculation

          k = 0.0000 0.0000 0.0000 ( 23465 PWs)   bands (ev):

   -59.1610 -59.1233 -59.1222 -59.1210 -33.5558 -33.5547 -33.5536 -33.2680
   -33.2671 -33.2662 -33.1798 -33.1798 -33.1235 -33.0472 -33.0469 -33.0467
   -12.2631 -11.0335 -10.3669 -10.3646 -10.3626 -10.2275 -10.2235 -10.2204
    -4.0029  -3.9988  -3.9948  -3.8125  -3.0296  -3.0274  -3.0252  -2.2719
    -2.2656  -2.2591  -1.2812  -1.2762  -1.2722  -0.7990  -0.7982  -0.1465
    -0.1395  -0.1346  -0.0331   0.4022   0.4058   0.8704   0.8737   0.8776
     1.0760   1.0773   1.0791   1.6912

     highest occupied level (ev):     1.6912

!    total energy              =    -741.92623038 Ry
     estimated scf accuracy    <          4.4E-09 Ry

     The total energy is the sum of the following terms:
     one-electron contribution =   -2116.31237271 Ry
     hartree contribution      =    1068.51728792 Ry
     xc contribution           =    -130.17409351 Ry
     ewald contribution        =     436.04294793 Ry

     convergence has been achieved in   9 iterations

     Forces acting on atoms (cartesian axes, Ry/au):

     atom    1 type  1   force =     0.00123209    0.00092022   -0.00000371
     atom    2 type  2   force =     0.00048943    0.00068852   -0.00062908
     atom    3 type  2   force =     0.00048960    0.00068803    0.00063132
     atom    4 type  1   force =     0.00165316   -0.00077029   -0.00000307
     atom    5 type  2   force =     0.00071097   -0.00077530   -0.00040061
     atom    6 type  2   force =     0.00071011   -0.00077538    0.00040360
     atom    7 type  1   force =    -0.00086283    0.00123129   -0.00000308
     atom    8 type  2   force =    -0.00110913    0.00054629   -0.00022916
     atom    9 type  2   force =    -0.00110955    0.00054704    0.00023218
     atom   10 type  1   force =    -0.00043417   -0.00045592   -0.00000168
     atom   11 type  2   force =    -0.00088475   -0.00092231   -0.00000045
     atom   12 type  2   force =    -0.00088494   -0.00092218    0.00000374

     Total force =     0.004420     Total SCF correction =     0.000109


     Computing stress (Cartesian axis) and pressure

          total   stress  (Ry/bohr**3)                   (kbar)     P=       -1.46
  -0.00001333  -0.00000029   0.00000000           -1.96       -0.04        0.00
  -0.00000029  -0.00001299  -0.00000000           -0.04       -1.91       -0.00
   0.00000000  -0.00000000  -0.00000346            0.00       -0.00       -0.51

     Energy error            =      1.4E-04 Ry
     Gradient error          =      1.7E-03 Ry/Bohr
     Cell gradient error     =      2.0E+00 kbar

     number of scf cycles    =   2
     number of bfgs steps    =   1

     enthalpy           old  =    -741.9260932645 Ry
     enthalpy           new  =    -741.9262303775 Ry

     CASE: enthalpy          _new < enthalpy          _old

     new trust radius        =       0.0078027777 bohr
ibrav =      4
 celldm(1) =     11.98553925
 celldm(3) =      2.00241303
Input lattice vectors:
     0.99879494     0.00002378     0.00000000
    -0.49937687     0.86494609     0.00000000
     0.00000000     0.00000000     2.00000000
New lattice vectors in INITIAL alat:
     0.99879494     0.00000000     0.00000000
    -0.49939747     0.86498179     0.00000000
     0.00000000     0.00000000     2.00000000
New lattice vectors in NEW alat (for information only):
     1.00000000     0.00000000     0.00000000
    -0.50000000     0.86602540     0.00000000
     0.00000000     0.00000000     2.00241303
Discrepancy in bohr =     0.000024    0.000041    0.000000
     new conv_thr            =       0.0000000001 Ry

     new unit-cell volume =   2985.77468 a.u.^3 (   442.44616 Ang^3 )
     density =      2.40303 g/cm^3

CELL_PARAMETERS (alat= 12.00000000)
   0.998794937   0.000000000   0.000000000
  -0.499397469   0.864981789   0.000000000
   0.000000000   0.000000000   2.000000000

ATOMIC_POSITIONS (angstrom)
Mo               0.0040879919        0.0021772445       11.5949981141
S                1.5884983351        0.9174684495       13.1880838359
S                1.5884983275        0.9174674172       10.0019175331
Mo              -1.5830993352        2.7493031821       11.5949986573
S                0.0006845658        3.6655716968       13.1888132558
S                0.0006845165        3.6655715395       10.0011886216
Mo               3.1752129910        0.0036695224       11.5949980730
S                4.7615482949        0.9176697602       13.1892446699
S                4.7615495204        0.9176702893       10.0007578291
Mo               1.5880322157        2.7507983638       11.5949975143
S                3.1737389064        3.6657653097       13.1899717942
S                3.1737389787        3.6657653306       10.0000301018



     Writing config-only to output data dir ./MoS2.save/ :
     XML data file
     NEW-OLD atomic charge density approx. for the potential

     total cpu time spent up to now is      123.4 secs

     Self-consistent Calculation

     iteration #  1     ecut=    60.00 Ry     beta= 0.70
     Davidson diagonalization with overlap
     ethr =  1.00E-06,  avg # of iterations =  3.0

     Threshold (ethr) on eigenvalues was too large:
     Diagonalizing with lowered threshold

     Davidson diagonalization with overlap
     ethr =  7.83E-09,  avg # of iterations =  9.0

     total cpu time spent up to now is      131.4 secs

     total energy              =    -741.92627635 Ry
     estimated scf accuracy    <       0.00001859 Ry

     iteration #  2     ecut=    60.00 Ry     beta= 0.70
     Davidson diagonalization with overlap
     ethr =  1.79E-08,  avg # of iterations =  9.0

     total cpu time spent up to now is      135.9 secs

     total energy              =    -741.92626915 Ry
     estimated scf accuracy    <       0.00013343 Ry

     iteration #  3     ecut=    60.00 Ry     beta= 0.70
     Davidson diagonalization with overlap
     ethr =  1.79E-08,  avg # of iterations =  6.0

     total cpu time spent up to now is      139.7 secs

     total energy              =    -741.92628599 Ry
     estimated scf accuracy    <       0.00000463 Ry

     iteration #  4     ecut=    60.00 Ry     beta= 0.70
     Davidson diagonalization with overlap
     ethr =  4.45E-09,  avg # of iterations =  5.0

     total cpu time spent up to now is      143.2 secs

     total energy              =    -741.92628699 Ry
     estimated scf accuracy    <       0.00000145 Ry

     iteration #  5     ecut=    60.00 Ry     beta= 0.70
     Davidson diagonalization with overlap
     ethr =  1.39E-09,  avg # of iterations =  5.0

     total cpu time spent up to now is      146.5 secs

     total energy              =    -741.92628720 Ry
     estimated scf accuracy    <       0.00000030 Ry

     iteration #  6     ecut=    60.00 Ry     beta= 0.70
     Davidson diagonalization with overlap
     ethr =  2.89E-10,  avg # of iterations =  6.0

     total cpu time spent up to now is      150.7 secs

     total energy              =    -741.92628724 Ry
     estimated scf accuracy    <       0.00000014 Ry

     iteration #  7     ecut=    60.00 Ry     beta= 0.70
     Davidson diagonalization with overlap
     ethr =  1.33E-10,  avg # of iterations =  6.0

     total cpu time spent up to now is      154.2 secs

     total energy              =    -741.92628727 Ry
     estimated scf accuracy    <       0.00000003 Ry

     iteration #  8     ecut=    60.00 Ry     beta= 0.70
     Davidson diagonalization with overlap
     ethr =  3.22E-11,  avg # of iterations =  6.0

     total cpu time spent up to now is      157.5 secs

     total energy              =    -741.92628728 Ry
     estimated scf accuracy    <          1.9E-09 Ry

     iteration #  9     ecut=    60.00 Ry     beta= 0.70
     Davidson diagonalization with overlap
     ethr =  1.83E-12,  avg # of iterations =  7.0

     total cpu time spent up to now is      161.5 secs

     total energy              =    -741.92628728 Ry
     estimated scf accuracy    <          3.7E-09 Ry

     iteration # 10     ecut=    60.00 Ry     beta= 0.70
     Davidson diagonalization with overlap
     ethr =  1.83E-12,  avg # of iterations =  3.0

     total cpu time spent up to now is      164.8 secs

     total energy              =    -741.92628728 Ry
     estimated scf accuracy    <          1.6E-09 Ry

     iteration # 11     ecut=    60.00 Ry     beta= 0.70
     Davidson diagonalization with overlap
     ethr =  1.52E-12,  avg # of iterations =  6.0

     total cpu time spent up to now is      168.0 secs

     End of self-consistent calculation

          k = 0.0000 0.0000 0.0000 ( 23465 PWs)   bands (ev):

   -59.1473 -59.1087 -59.1081 -59.1076 -33.5435 -33.5433 -33.5433 -33.2537
   -33.2536 -33.2534 -33.1657 -33.1656 -33.1117 -33.0348 -33.0345 -33.0343
   -12.2616 -11.0292 -10.3586 -10.3558 -10.3545 -10.2182 -10.2171 -10.2169
    -3.9996  -3.9976  -3.9949  -3.8105  -3.0258  -3.0254  -3.0242  -2.2651
    -2.2606  -2.2575  -1.2718  -1.2686  -1.2669  -0.7907  -0.7894  -0.1349
    -0.1339  -0.1299  -0.0272   0.4125   0.4181   0.8852   0.8878   0.8891
     1.0854   1.0859   1.0886   1.6981

     highest occupied level (ev):     1.6981

!    total energy              =    -741.92628728 Ry
     estimated scf accuracy    <          1.1E-10 Ry

     The total energy is the sum of the following terms:
     one-electron contribution =   -2119.06284302 Ry
     hartree contribution      =    1069.93562141 Ry
     xc contribution           =    -130.18931004 Ry
     ewald contribution        =     437.39024437 Ry

     convergence has been achieved in  11 iterations

     Forces acting on atoms (cartesian axes, Ry/au):

     atom    1 type  1   force =    -0.00088374    0.00010077    0.00000232
     atom    2 type  2   force =     0.00041340    0.00083564    0.00082167
     atom    3 type  2   force =     0.00041350    0.00083584   -0.00082361
     atom    4 type  1   force =    -0.00078232   -0.00007175    0.00000161
     atom    5 type  2   force =     0.00071361    0.00002410    0.00050291
     atom    6 type  2   force =     0.00071336    0.00002425   -0.00050491
     atom    7 type  1   force =    -0.00041928   -0.00062881    0.00000168
     atom    8 type  2   force =    -0.00011015    0.00032566    0.00040394
     atom    9 type  2   force =    -0.00011067    0.00032555   -0.00040586
     atom   10 type  1   force =    -0.00032707   -0.00080643    0.00000221
     atom   11 type  2   force =     0.00018955   -0.00048239    0.00008904
     atom   12 type  2   force =     0.00018980   -0.00048242   -0.00009101

     Total force =     0.002911     Total SCF correction =     0.000022


     Computing stress (Cartesian axis) and pressure

          total   stress  (Ry/bohr**3)                   (kbar)     P=       -0.36
  -0.00000474   0.00000042   0.00000000           -0.70        0.06        0.00
   0.00000042  -0.00000524  -0.00000000            0.06       -0.77       -0.00
   0.00000000  -0.00000000   0.00000272            0.00       -0.00        0.40

     Energy error            =      5.7E-05 Ry
     Gradient error          =      8.8E-04 Ry/Bohr
     Cell gradient error     =      7.7E-01 kbar

     number of scf cycles    =   3
     number of bfgs steps    =   2

     enthalpy           old  =    -741.9262303775 Ry
     enthalpy           new  =    -741.9262872774 Ry

     CASE: enthalpy          _new < enthalpy          _old

     new trust radius        =       0.0033557007 bohr
ibrav =      4
 celldm(1) =     11.98196517
 celldm(3) =      2.00301033
Input lattice vectors:
     0.99849710     0.00000740     0.00000000
    -0.49924214     0.86471257     0.00000000
     0.00000000     0.00000000     2.00000000
New lattice vectors in INITIAL alat:
     0.99849710     0.00000000     0.00000000
    -0.49924855     0.86472385     0.00000000
     0.00000000     0.00000000     2.00000000
New lattice vectors in NEW alat (for information only):
     1.00000000     0.00000000     0.00000000
    -0.50000000     0.86602540     0.00000000
     0.00000000     0.00000000     2.00301033
Discrepancy in bohr =     0.000007    0.000013    0.000000
     new conv_thr            =            1.0E-10 Ry

     new unit-cell volume =   2983.99423 a.u.^3 (   442.18232 Ang^3 )
     density =      2.40446 g/cm^3

CELL_PARAMETERS (alat= 12.00000000)
   0.998497097   0.000000000   0.000000000
  -0.499248549   0.864723852   0.000000000
   0.000000000   0.000000000   2.000000000

ATOMIC_POSITIONS (angstrom)
Mo               0.0040336690        0.0025175327       11.5949993674
S                1.5883446357        0.9178094390       13.1883726400
S                1.5883446924        0.9178084063       10.0016276552
Mo              -1.5825011926        2.7482667712       11.5949995189
S                0.0012324771        3.6642470039       13.1889882262
S                0.0012322620        3.6642469289       10.0010126086
Mo               3.1738734265        0.0037271718       11.5949989076
S                4.7597148061        0.9177067227       13.1894103187
S                4.7597158464        0.9177072514       10.0005912616
Mo               1.5873400172        2.7494763975       11.5949986246
S                3.1726072551        3.6641378629       13.1900258187
S                3.1726074945        3.6641378722        9.9999750524



     Writing config-only to output data dir ./MoS2.save/ :
     XML data file
     NEW-OLD atomic charge density approx. for the potential

     total cpu time spent up to now is      179.3 secs

     Self-consistent Calculation

     iteration #  1     ecut=    60.00 Ry     beta= 0.70
     Davidson diagonalization with overlap
     ethr =  1.00E-06,  avg # of iterations =  2.0

     Threshold (ethr) on eigenvalues was too large:
     Diagonalizing with lowered threshold

     Davidson diagonalization with overlap
     ethr =  3.93E-09,  avg # of iterations =  8.0

     total cpu time spent up to now is      185.7 secs

     total energy              =    -741.92629827 Ry
     estimated scf accuracy    <       0.00000259 Ry

     iteration #  2     ecut=    60.00 Ry     beta= 0.70
     Davidson diagonalization with overlap
     ethr =  2.49E-09,  avg # of iterations =  9.0

     total cpu time spent up to now is      189.8 secs

     total energy              =    -741.92629659 Ry
     estimated scf accuracy    <       0.00002744 Ry

     iteration #  3     ecut=    60.00 Ry     beta= 0.70
     Davidson diagonalization with overlap
     ethr =  2.49E-09,  avg # of iterations =  9.0

     total cpu time spent up to now is      193.6 secs

     total energy              =    -741.92629975 Ry
     estimated scf accuracy    <       0.00000060 Ry

     iteration #  4     ecut=    60.00 Ry     beta= 0.70
     Davidson diagonalization with overlap
     ethr =  5.77E-10,  avg # of iterations =  7.0

     total cpu time spent up to now is      197.1 secs

     total energy              =    -741.92629992 Ry
     estimated scf accuracy    <       0.00000019 Ry

     iteration #  5     ecut=    60.00 Ry     beta= 0.70
     Davidson diagonalization with overlap
     ethr =  1.82E-10,  avg # of iterations =  3.0

     total cpu time spent up to now is      200.4 secs

     total energy              =    -741.92629994 Ry
     estimated scf accuracy    <       0.00000005 Ry

     iteration #  6     ecut=    60.00 Ry     beta= 0.70
     Davidson diagonalization with overlap
     ethr =  4.50E-11,  avg # of iterations =  5.0

     total cpu time spent up to now is      203.8 secs

     total energy              =    -741.92629995 Ry
     estimated scf accuracy    <       0.00000001 Ry

     iteration #  7     ecut=    60.00 Ry     beta= 0.70
     Davidson diagonalization with overlap
     ethr =  1.43E-11,  avg # of iterations =  6.0

     total cpu time spent up to now is      207.1 secs

     total energy              =    -741.92629995 Ry
     estimated scf accuracy    <          3.0E-09 Ry

     iteration #  8     ecut=    60.00 Ry     beta= 0.70
     Davidson diagonalization with overlap
     ethr =  2.91E-12,  avg # of iterations =  6.0

     total cpu time spent up to now is      210.4 secs

     total energy              =    -741.92629995 Ry
     estimated scf accuracy    <          6.8E-10 Ry

     iteration #  9     ecut=    60.00 Ry     beta= 0.70
     Davidson diagonalization with overlap
     ethr =  6.49E-13,  avg # of iterations =  5.0

     total cpu time spent up to now is      213.5 secs

     total energy              =    -741.92629995 Ry
     estimated scf accuracy    <          3.0E-10 Ry

     iteration # 10     ecut=    60.00 Ry     beta= 0.70
     Davidson diagonalization with overlap
     ethr =  2.87E-13,  avg # of iterations =  6.0

     total cpu time spent up to now is      216.7 secs

     total energy              =    -741.92629995 Ry
     estimated scf accuracy    <          1.4E-10 Ry

     iteration # 11     ecut=    60.00 Ry     beta= 0.70
     Davidson diagonalization with overlap
     ethr =  1.35E-13,  avg # of iterations =  3.0

     total cpu time spent up to now is      219.9 secs

     End of self-consistent calculation

          k = 0.0000 0.0000 0.0000 ( 23465 PWs)   bands (ev):

   -59.1411 -59.1021 -59.1018 -59.1014 -33.5380 -33.5379 -33.5377 -33.2474
   -33.2472 -33.2470 -33.1590 -33.1590 -33.1062 -33.0290 -33.0288 -33.0286
   -12.2596 -11.0271 -10.3533 -10.3510 -10.3496 -10.2145 -10.2137 -10.2129
    -3.9968  -3.9958  -3.9940  -3.8084  -3.0242  -3.0234  -3.0229  -2.2606
    -2.2575  -2.2558  -1.2660  -1.2633  -1.2628  -0.7844  -0.7836  -0.1312
    -0.1309  -0.1285  -0.0252   0.4203   0.4239   0.8932   0.8949   0.8957
     1.0898   1.0904   1.0925   1.7003

     highest occupied level (ev):     1.7003

!    total energy              =    -741.92629995 Ry
     estimated scf accuracy    <          7.3E-11 Ry

     The total energy is the sum of the following terms:
     one-electron contribution =   -2119.95176233 Ry
     hartree contribution      =    1070.40074157 Ry
     xc contribution           =    -130.19399808 Ry
     ewald contribution        =     437.81871889 Ry

     convergence has been achieved in  11 iterations

     Forces acting on atoms (cartesian axes, Ry/au):

     atom    1 type  1   force =    -0.00077745   -0.00001862    0.00000051
     atom    2 type  2   force =     0.00015905    0.00049770    0.00097093
     atom    3 type  2   force =     0.00015896    0.00049798   -0.00097133
     atom    4 type  1   force =    -0.00070284    0.00015538    0.00000026
     atom    5 type  2   force =     0.00043470    0.00006759    0.00062448
     atom    6 type  2   force =     0.00043462    0.00006762   -0.00062500
     atom    7 type  1   force =    -0.00006559   -0.00060026    0.00000043
     atom    8 type  2   force =    -0.00004756    0.00015355    0.00047787
     atom    9 type  2   force =    -0.00004786    0.00015352   -0.00047861
     atom   10 type  1   force =     0.00000464   -0.00042867    0.00000095
     atom   11 type  2   force =     0.00022460   -0.00027292    0.00013258
     atom   12 type  2   force =     0.00022475   -0.00027287   -0.00013307

     Total force =     0.002463     Total SCF correction =     0.000025


     Computing stress (Cartesian axis) and pressure

          total   stress  (Ry/bohr**3)                   (kbar)     P=       -0.03
  -0.00000189   0.00000027   0.00000000           -0.28        0.04        0.00
   0.00000027  -0.00000221  -0.00000000            0.04       -0.32       -0.00
   0.00000000  -0.00000000   0.00000352            0.00       -0.00        0.52

     Energy error            =      1.3E-05 Ry
     Gradient error          =      9.7E-04 Ry/Bohr
     Cell gradient error     =      3.2E-01 kbar
ibrav =      4
 celldm(1) =     11.98196517
 celldm(3) =      2.00301033
Input lattice vectors:
     0.99849710     0.00000000     0.00000000
    -0.49924855     0.86472385     0.00000000
     0.00000000     0.00000000     2.00000000
New lattice vectors in INITIAL alat:
     0.99849710     0.00000000     0.00000000
    -0.49924855     0.86472385     0.00000000
     0.00000000     0.00000000     2.00000000
New lattice vectors in NEW alat (for information only):
     1.00000000     0.00000000     0.00000000
    -0.50000000     0.86602540     0.00000000
     0.00000000     0.00000000     2.00301033
Discrepancy in bohr =     0.000000    0.000000    0.000000

     bfgs converged in   4 scf cycles and   3 bfgs steps
     (criteria: energy <  1.0E-04 Ry, force <  1.0E-03 Ry/Bohr, cell <  5.0E-01 kbar)

     End of BFGS Geometry Optimization

     Final enthalpy           =    -741.9262999516 Ry

     File ./MoS2.bfgs deleted, as requested
Begin final coordinates
     new unit-cell volume =   2983.99423 a.u.^3 (   442.18232 Ang^3 )
     density =      2.40446 g/cm^3

CELL_PARAMETERS (alat= 12.00000000)
   0.998497097   0.000000000   0.000000000
  -0.499248549   0.864723852   0.000000000
   0.000000000   0.000000000   2.000000000

ATOMIC_POSITIONS (angstrom)
Mo               0.0040336690        0.0025175327       11.5949993674
S                1.5883446357        0.9178094390       13.1883726400
S                1.5883446924        0.9178084063       10.0016276552
Mo              -1.5825011926        2.7482667712       11.5949995189
S                0.0012324771        3.6642470039       13.1889882262
S                0.0012322620        3.6642469289       10.0010126086
Mo               3.1738734265        0.0037271718       11.5949989076
S                4.7597148061        0.9177067227       13.1894103187
S                4.7597158464        0.9177072514       10.0005912616
Mo               1.5873400172        2.7494763975       11.5949986246
S                3.1726072551        3.6641378629       13.1900258187
S                3.1726074945        3.6641378722        9.9999750524
End final coordinates



     Writing config-only to output data dir ./MoS2.save/ :
     XML data file

     Final scf calculation at the relaxed structure.
     The G-vectors are recalculated for the final unit cell
     Results may differ from those at the preceding step.
 
     Parallelization info
     --------------------
     sticks:   dense  smooth     PW     G-vecs:    dense   smooth      PW
     Min        1234     595    148               140936    46807    5854
     Max        1235     596    150               140947    46812    5855
     Sum        4939    2383    595               563769   187241   23417
 
     Using Slab Decomposition
 


     bravais-lattice index     =            4
     lattice parameter (alat)  =      12.0000  a.u.
     unit-cell volume          =    2983.9942 (a.u.)^3
     number of atoms/cell      =           12
     number of atomic types    =            2
     number of electrons       =       104.00
     number of Kohn-Sham states=           52
     kinetic-energy cutoff     =      60.0000  Ry
     charge density cutoff     =     500.0000  Ry
     scf convergence threshold =      1.0E-10
     mixing beta               =       0.7000
     number of iterations used =            8  plain     mixing
     press convergence thresh. =      5.0E-01
     Exchange-correlation=  SLA  PW   PBX  PBC
                           (   1   4   3   4   0   0   0)

     celldm(1)=  12.000000  celldm(2)=   0.000000  celldm(3)=   2.000000
     celldm(4)=   0.000000  celldm(5)=   0.000000  celldm(6)=   0.000000

     crystal axes: (cart. coord. in units of alat)
               a(1) = (   0.998497   0.000000   0.000000 )  
               a(2) = (  -0.499249   0.864724   0.000000 )  
               a(3) = (   0.000000   0.000000   2.000000 )  

     reciprocal axes: (cart. coord. in units 2 pi/alat)
               b(1) = (  1.001505  0.578219  0.000000 )  
               b(2) = (  0.000000  1.156439  0.000000 )  
               b(3) = (  0.000000  0.000000  0.500000 )  


     PseudoPot. # 1 for Mo read from file:
     ./pseudos/Mo_ONCV_PBE-1.0.oncvpsp.upf
     MD5 check sum: 1b5d28e075c9ccadda658a603575cd1f
     Pseudo is Norm-conserving, Zval = 14.0
     Generated using ONCVPSP code by D. R. Hamann
     Using radial grid of 1526 points,  6 beta functions with: 
                l(1) =   0
                l(2) =   0
                l(3) =   1
                l(4) =   1
                l(5) =   2
                l(6) =   2

     PseudoPot. # 2 for S  read from file:
     ./pseudos/s_pbe_v1.4.uspp.F.UPF
     MD5 check sum: 88d86576ff6df21479756cfb9bdac1df
     Pseudo is Ultrasoft + core correction, Zval =  6.0
     Generated by new atomic code, or converted to UPF format
     Using radial grid of  907 points,  6 beta functions with: 
                l(1) =   0
                l(2) =   0
                l(3) =   1
                l(4) =   1
                l(5) =   2
                l(6) =   2
     Q(r) pseudized with  8 coefficients,  rinner =    1.300   1.300   1.300
                                                       1.300   1.300

     atomic species   valence    mass     pseudopotential
     Mo               14.00    95.95000     Mo( 1.00)
     S                 6.00    32.06000     S ( 1.00)

     No symmetry found



   Cartesian axes

     site n.     atom                  positions (alat units)
         1        Mo     tau(   1) = (   0.0006352   0.0003965   1.8259478  )
         2        S      tau(   2) = (   0.2501280   0.1445340   2.0768677  )
         3        S      tau(   3) = (   0.2501280   0.1445339   1.5750281  )
         4        Mo     tau(   4) = (  -0.2492078   0.4327893   1.8259478  )
         5        S      tau(   5) = (   0.0001941   0.5770353   2.0769646  )
         6        S      tau(   6) = (   0.0001941   0.5770353   1.5749312  )
         7        Mo     tau(   7) = (   0.4998126   0.0005869   1.8259477  )
         8        S      tau(   8) = (   0.7495465   0.1445179   2.0770311  )
         9        S      tau(   9) = (   0.7495466   0.1445179   1.5748649  )
        10        Mo     tau(  10) = (   0.2499698   0.4329798   1.8259477  )
        11        S      tau(  11) = (   0.4996132   0.5770181   2.0771280  )
        12        S      tau(  12) = (   0.4996133   0.5770181   1.5747678  )

     number of k points=     1
                       cart. coord. in units 2pi/alat
        k(    1) = (   0.0000000   0.0000000   0.0000000), wk =   2.0000000

     Dense  grid:   563769 G-vectors     FFT dimensions: (  90,  90, 180)

     Smooth grid:   187241 G-vectors     FFT dimensions: (  60,  60, 120)

     Estimated max dynamical RAM per process >     568.94 MB

     Estimated total dynamical RAM >       2.22 GB

     Initial potential from superposition of free atoms

     starting charge     103.9958, renormalised to     104.0000

     negative rho (up, down):  5.861E-08 0.000E+00
     Starting wfcs are   72 randomized atomic wfcs

     total cpu time spent up to now is      232.7 secs

     Self-consistent Calculation

     iteration #  1     ecut=    60.00 Ry     beta= 0.70
     Davidson diagonalization with overlap
     ethr =  1.00E-06,  avg # of iterations = 17.0

     total cpu time spent up to now is      238.5 secs

     total energy              =    -741.77721716 Ry
     estimated scf accuracy    <       0.45510492 Ry

     iteration #  2     ecut=    60.00 Ry     beta= 0.70
     Davidson diagonalization with overlap
     ethr =  4.38E-04,  avg # of iterations =  3.0

     total cpu time spent up to now is      242.0 secs

     total energy              =    -741.79480301 Ry
     estimated scf accuracy    <       0.48741939 Ry

     iteration #  3     ecut=    60.00 Ry     beta= 0.70
     Davidson diagonalization with overlap
     ethr =  4.38E-04,  avg # of iterations =  4.0

     total cpu time spent up to now is      245.4 secs

     total energy              =    -741.89596309 Ry
     estimated scf accuracy    <       0.15185271 Ry

     iteration #  4     ecut=    60.00 Ry     beta= 0.70
     Davidson diagonalization with overlap
     ethr =  1.46E-04,  avg # of iterations =  5.0

     total cpu time spent up to now is      248.7 secs

     total energy              =    -741.92444988 Ry
     estimated scf accuracy    <       0.00190170 Ry

     iteration #  5     ecut=    60.00 Ry     beta= 0.70
     Davidson diagonalization with overlap
     ethr =  1.83E-06,  avg # of iterations =  6.0

     total cpu time spent up to now is      252.4 secs

     total energy              =    -741.92536793 Ry
     estimated scf accuracy    <       0.00323587 Ry

     iteration #  6     ecut=    60.00 Ry     beta= 0.70
     Davidson diagonalization with overlap
     ethr =  1.83E-06,  avg # of iterations =  7.0

     total cpu time spent up to now is      255.8 secs

     total energy              =    -741.92629168 Ry
     estimated scf accuracy    <       0.00071701 Ry

     iteration #  7     ecut=    60.00 Ry     beta= 0.70
     Davidson diagonalization with overlap
     ethr =  6.89E-07,  avg # of iterations =  3.0

     total cpu time spent up to now is      258.9 secs

     total energy              =    -741.92622887 Ry
     estimated scf accuracy    <       0.00035465 Ry

     iteration #  8     ecut=    60.00 Ry     beta= 0.70
     Davidson diagonalization with overlap
     ethr =  3.41E-07,  avg # of iterations =  5.0

     total cpu time spent up to now is      262.3 secs

     total energy              =    -741.92628999 Ry
     estimated scf accuracy    <       0.00001776 Ry

     iteration #  9     ecut=    60.00 Ry     beta= 0.70
     Davidson diagonalization with overlap
     ethr =  1.71E-08,  avg # of iterations =  6.0

     total cpu time spent up to now is      265.8 secs

     total energy              =    -741.92629217 Ry
     estimated scf accuracy    <       0.00002192 Ry

     iteration # 10     ecut=    60.00 Ry     beta= 0.70
     Davidson diagonalization with overlap
     ethr =  1.71E-08,  avg # of iterations =  5.0

     total cpu time spent up to now is      269.1 secs

     total energy              =    -741.92629516 Ry
     estimated scf accuracy    <       0.00000233 Ry

     iteration # 11     ecut=    60.00 Ry     beta= 0.70
     Davidson diagonalization with overlap
     ethr =  2.24E-09,  avg # of iterations =  5.0

     total cpu time spent up to now is      272.5 secs

     total energy              =    -741.92629541 Ry
     estimated scf accuracy    <       0.00000080 Ry

     iteration # 12     ecut=    60.00 Ry     beta= 0.70
     Davidson diagonalization with overlap
     ethr =  7.68E-10,  avg # of iterations =  8.0

     total cpu time spent up to now is      276.1 secs

     total energy              =    -741.92629546 Ry
     estimated scf accuracy    <       0.00000164 Ry

     iteration # 13     ecut=    60.00 Ry     beta= 0.70
     Davidson diagonalization with overlap
     ethr =  7.68E-10,  avg # of iterations =  4.0

     total cpu time spent up to now is      279.4 secs

     total energy              =    -741.92629548 Ry
     estimated scf accuracy    <       0.00000059 Ry

     iteration # 14     ecut=    60.00 Ry     beta= 0.70
     Davidson diagonalization with overlap
     ethr =  5.63E-10,  avg # of iterations =  6.0

     total cpu time spent up to now is      282.9 secs

     total energy              =    -741.92629559 Ry
     estimated scf accuracy    <       0.00000048 Ry

     iteration # 15     ecut=    60.00 Ry     beta= 0.70
     Davidson diagonalization with overlap
     ethr =  4.60E-10,  avg # of iterations =  1.0

     total cpu time spent up to now is      285.8 secs

     total energy              =    -741.92629555 Ry
     estimated scf accuracy    <       0.00000026 Ry

     iteration # 16     ecut=    60.00 Ry     beta= 0.70
     Davidson diagonalization with overlap
     ethr =  2.53E-10,  avg # of iterations =  5.0

     total cpu time spent up to now is      289.0 secs

     total energy              =    -741.92629556 Ry
     estimated scf accuracy    <       0.00000006 Ry

     iteration # 17     ecut=    60.00 Ry     beta= 0.70
     Davidson diagonalization with overlap
     ethr =  5.44E-11,  avg # of iterations =  8.0

     total cpu time spent up to now is      292.8 secs

     total energy              =    -741.92629559 Ry
     estimated scf accuracy    <       0.00000003 Ry

     iteration # 18     ecut=    60.00 Ry     beta= 0.70
     Davidson diagonalization with overlap
     ethr =  2.88E-11,  avg # of iterations =  1.0

     total cpu time spent up to now is      295.7 secs

     total energy              =    -741.92629558 Ry
     estimated scf accuracy    <       0.00000002 Ry

     iteration # 19     ecut=    60.00 Ry     beta= 0.70
     Davidson diagonalization with overlap
     ethr =  1.54E-11,  avg # of iterations =  6.0

     total cpu time spent up to now is      299.1 secs

     total energy              =    -741.92629559 Ry
     estimated scf accuracy    <          1.9E-09 Ry

     iteration # 20     ecut=    60.00 Ry     beta= 0.70
     Davidson diagonalization with overlap
     ethr =  1.78E-12,  avg # of iterations =  4.0

     total cpu time spent up to now is      302.6 secs

     total energy              =    -741.92629559 Ry
     estimated scf accuracy    <          3.9E-10 Ry

     iteration # 21     ecut=    60.00 Ry     beta= 0.70
     Davidson diagonalization with overlap
     ethr =  3.75E-13,  avg # of iterations =  7.0

     total cpu time spent up to now is      306.1 secs

     total energy              =    -741.92629559 Ry
     estimated scf accuracy    <          1.3E-10 Ry

     iteration # 22     ecut=    60.00 Ry     beta= 0.70
     Davidson diagonalization with overlap
     ethr =  1.22E-13,  avg # of iterations =  5.0

     total cpu time spent up to now is      309.3 secs

     total energy              =    -741.92629559 Ry
     estimated scf accuracy    <          1.3E-10 Ry

     iteration # 23     ecut=    60.00 Ry     beta= 0.70
     Davidson diagonalization with overlap
     ethr =  1.20E-13,  avg # of iterations =  5.0

     total cpu time spent up to now is      312.5 secs

     End of self-consistent calculation

          k = 0.0000 0.0000 0.0000 ( 23417 PWs)   bands (ev):

   -59.1411 -59.1021 -59.1018 -59.1015 -33.5380 -33.5379 -33.5377 -33.2474
   -33.2472 -33.2470 -33.1590 -33.1590 -33.1063 -33.0290 -33.0288 -33.0286
   -12.2596 -11.0271 -10.3533 -10.3510 -10.3496 -10.2145 -10.2137 -10.2129
    -3.9968  -3.9958  -3.9940  -3.8084  -3.0242  -3.0234  -3.0229  -2.2606
    -2.2575  -2.2558  -1.2660  -1.2633  -1.2628  -0.7844  -0.7836  -0.1312
    -0.1309  -0.1285  -0.0252   0.4203   0.4239   0.8932   0.8949   0.8957
     1.0898   1.0904   1.0925   1.7003

     highest occupied level (ev):     1.7003

!    total energy              =    -741.92629559 Ry
     estimated scf accuracy    <          3.3E-12 Ry

     The total energy is the sum of the following terms:
     one-electron contribution =   -2119.95156362 Ry
     hartree contribution      =    1070.40054419 Ry
     xc contribution           =    -130.19399505 Ry
     ewald contribution        =     437.81871889 Ry

     convergence has been achieved in  23 iterations

     Forces acting on atoms (cartesian axes, Ry/au):

     atom    1 type  1   force =    -0.00077739   -0.00001882   -0.00000003
     atom    2 type  2   force =     0.00015933    0.00049772    0.00097196
     atom    3 type  2   force =     0.00015911    0.00049792   -0.00097172
     atom    4 type  1   force =    -0.00070262    0.00015567   -0.00000019
     atom    5 type  2   force =     0.00043482    0.00006787    0.00062547
     atom    6 type  2   force =     0.00043462    0.00006783   -0.00062546
     atom    7 type  1   force =    -0.00006586   -0.00060063   -0.00000001
     atom    8 type  2   force =    -0.00004781    0.00015344    0.00047895
     atom    9 type  2   force =    -0.00004803    0.00015338   -0.00047898
     atom   10 type  1   force =     0.00000458   -0.00042869   -0.00000018
     atom   11 type  2   force =     0.00022454   -0.00027290    0.00013365
     atom   12 type  2   force =     0.00022470   -0.00027279   -0.00013346

     Total force =     0.002464     Total SCF correction =     0.000006


     Computing stress (Cartesian axis) and pressure

          total   stress  (Ry/bohr**3)                   (kbar)     P=       -0.03
  -0.00000190   0.00000027   0.00000000           -0.28        0.04        0.00
   0.00000027  -0.00000221  -0.00000000            0.04       -0.33       -0.00
   0.00000000  -0.00000000   0.00000351            0.00       -0.00        0.52


     Writing all to output data dir ./MoS2.save/ :
     XML data file, charge density, pseudopotentials, collected wavefunctions
 
     init_run     :      3.59s CPU      4.34s WALL (       2 calls)
     electrons    :    222.56s CPU    261.44s WALL (       5 calls)
     update_pot   :      1.21s CPU      1.39s WALL (       3 calls)
     forces       :      6.22s CPU      7.69s WALL (       5 calls)
     stress       :     39.46s CPU     47.49s WALL (       5 calls)

     Called by init_run:
     wfcinit      :      0.92s CPU      1.04s WALL (       2 calls)
     potinit      :      0.73s CPU      0.82s WALL (       2 calls)
     hinit0       :      0.35s CPU      0.40s WALL (       2 calls)

     Called by electrons:
     c_bands      :     89.15s CPU     93.75s WALL (      75 calls)
     sum_band     :     70.11s CPU     85.81s WALL (      75 calls)
     v_of_rho     :     20.69s CPU     23.75s WALL (      76 calls)
     newd         :     40.89s CPU     55.94s WALL (      76 calls)
     mix_rho      :      3.84s CPU      5.21s WALL (      75 calls)

     Called by c_bands:
     init_us_2    :      2.29s CPU      2.58s WALL (     152 calls)
     cegterg      :     82.50s CPU     86.44s WALL (      75 calls)

     Called by *egterg:
     cdiaghg      :      1.37s CPU      1.42s WALL (     480 calls)
     h_psi        :     65.62s CPU     68.58s WALL (     489 calls)
     s_psi        :      4.63s CPU      4.70s WALL (     489 calls)
     g_psi        :      0.19s CPU      0.19s WALL (     412 calls)

     Called by h_psi:
     h_psi:calbec :      4.70s CPU      4.78s WALL (     489 calls)
     vloc_psi     :     55.90s CPU     58.47s WALL (     489 calls)
     add_vuspsi   :      4.59s CPU      4.68s WALL (     489 calls)

     General routines
     calbec       :      6.33s CPU      6.43s WALL (     589 calls)
     fft          :     16.06s CPU     16.95s WALL (    1110 calls)
     ffts         :      0.46s CPU      0.50s WALL (     151 calls)
     fftw         :     36.59s CPU     38.65s WALL (   28972 calls)
     interpolate  :      1.55s CPU      1.71s WALL (      76 calls)
 
     Parallel routines
 
     PWSCF        :   4m35.67s CPU   5m25.85s WALL

 
   This run was terminated on:   0:35:32  25Jun2024            

=------------------------------------------------------------------------------=
   JOB DONE.
=------------------------------------------------------------------------------=
